27
Energy = -4717.102540727
C    -0.6004690   -1.8541396   -4.3931123 
H    -0.9885128   -0.8116508   -4.4441158 
H    -1.2233186   -2.5109691   -5.0545639 
H     0.4332653   -1.8614472   -4.8208224 
S    -0.6420813   -2.4169491   -2.6407698 
C     0.4911160    1.7119732   -3.4952934 
H     1.1454118    1.7908560   -2.6017265 
H     0.4940557    2.6834804   -4.0526033 
H     0.9297739    0.9375322   -4.1667404 
S    -1.2045031    1.2624527   -2.9490191 
C    -0.5170233    2.7735147    1.7890395 
H     0.1897341    2.5579946    0.9587402 
H    -0.1817476    3.6864329    2.3434608 
H    -1.5092436    2.9968065    1.3360800 
S    -0.5859628    1.3069271    2.8986914 
C    -0.5055631   -1.6440394    4.3765240 
H    -1.3125977   -0.8903412    4.5041769 
H     0.4429013   -1.1359999    4.6628636 
H    -0.6817372   -2.4716890    5.1124802 
S    -0.4582362   -2.2773941    2.6480953 
Fe   -0.5822491   -0.4261876   -1.2438221 
Fe   -0.4040092   -0.3452652    1.1749566 
S     1.3672017    0.2724370   -0.2315191 
C    -2.0078868    0.0019752    0.0519971 
H    -0.5166457   -1.6358452   -0.0228939 
H    -2.3493298    1.0582445   -0.0027923 
H    -2.8433420   -0.7077099    0.2366894 
